<?xml version="1.0" encoding="UTF-8"?>

<!-- generated on 2023-02-18 22:07:48 by Eclipse SUMO sumo Version 1.16.0
<configuration xmlns:xsi="http://www.w3.org/2001/XMLSchema-instance" xsi:noNamespaceSchemaLocation="http://sumo.dlr.de/xsd/sumoConfiguration.xsd">

    <input>
        <net-file value="/Users/osorio/notebooks/od_calibration_sumo_files/quickstart/data/quickstart.net.xml"/>
        <route-files value="/Users/osorio/notebooks/od_calibration_sumo_files/quickstart/data/gt_od_trips.trips.xml"/>
        <additional-files value="/Users/osorio/notebooks/od_calibration_sumo_files/quickstart/data/quickstart.additional.xml"/>
    </input>

    <output>
        <output-prefix value="GT"/>
        <vehroute-output value="/Users/osorio/notebooks/od_calibration_sumo_files/quickstart/data/gt_routes.vehroutes.xml"/>
    </output>

    <time>
        <begin value="54000"/>
        <end value="57600"/>
    </time>

    <processing>
        <ignore-route-errors value="true"/>
    </processing>

    <report>
        <xml-validation value="never"/>
        <duration-log.statistics value="true"/>
    </report>

</configuration>
-->

<routes xmlns:xsi="http://www.w3.org/2001/XMLSchema-instance" xsi:noNamespaceSchemaLocation="http://sumo.dlr.de/xsd/routes_file.xsd">
    <vehicle id="500" type="CarA" depart="54004.00" departLane="1" departSpeed="15.0387" fromTaz="taz91" toTaz="taz94" speedFactor="1.0827" arrival="54275.00">
        <route edges="D2 L2 L12 L10 L7 D7"/>
    </vehicle>

    <vehicle id="1000" type="CarA" depart="54002.00" departLane="0" departSpeed="14.7234" fromTaz="taz92" toTaz="taz93" speedFactor="1.0600" arrival="54278.00">
        <route edges="D4 L4 L14 L18 L5 D5"/>
    </vehicle>

    <vehicle id="503" type="CarA" depart="54026.00" departLane="0" departSpeed="16.0874" fromTaz="taz91" toTaz="taz94" speedFactor="1.1582" arrival="54280.00">
        <route edges="D2 L2 L12 L10 L7 D7"/>
    </vehicle>

    <vehicle id="1001" type="CarA" depart="54006.00" departLane="0" departSpeed="14.3109" fromTaz="taz92" toTaz="taz93" speedFactor="1.0303" arrival="54291.00">
        <route edges="D4 L4 L14 L18 L5 D5"/>
    </vehicle>

    <vehicle id="505" type="CarA" depart="54040.00" departLane="0" departSpeed="16.0346" fromTaz="taz91" toTaz="taz94" speedFactor="1.1544" arrival="54300.00">
        <route edges="D2 L2 L12 L10 L7 D7"/>
    </vehicle>

    <vehicle id="1002" type="CarA" depart="54010.00" departLane="0" departSpeed="14.5262" fromTaz="taz92" toTaz="taz93" speedFactor="1.0458" arrival="54308.00">
        <route edges="D4 L4 L14 L18 L5 D5"/>
    </vehicle>

    <vehicle id="1004" type="CarA" depart="54018.00" departLane="0" departSpeed="14.5442" fromTaz="taz92" toTaz="taz93" speedFactor="1.0471" arrival="54308.00">
        <route edges="D4 L4 L14 L18 L5 D5"/>
    </vehicle>

    <vehicle id="1003" type="CarA" depart="54014.00" departLane="0" departSpeed="15.1498" fromTaz="taz92" toTaz="taz93" speedFactor="1.0907" arrival="54310.00">
        <route edges="D4 L4 L14 L18 L5 D5"/>
    </vehicle>

    <vehicle id="1009" type="CarA" depart="54038.00" departLane="1" departSpeed="15.7207" fromTaz="taz92" toTaz="taz93" speedFactor="1.1318" arrival="54315.00">
        <route edges="D4 L4 L14 L18 L5 D5"/>
    </vehicle>

    <vehicle id="1006" type="CarA" depart="54026.00" departLane="0" departSpeed="14.1414" fromTaz="taz92" toTaz="taz93" speedFactor="1.0181" arrival="54316.00">
        <route edges="D4 L4 L14 L18 L5 D5"/>
    </vehicle>

    <vehicle id="1012" type="CarA" depart="54050.00" departLane="1" departSpeed="15.3109" fromTaz="taz92" toTaz="taz93" speedFactor="1.1023" arrival="54320.00">
        <route edges="D4 L4 L14 L18 L5 D5"/>
    </vehicle>

    <vehicle id="507" type="CarA" depart="54054.00" departLane="0" departSpeed="15.1665" fromTaz="taz91" toTaz="taz94" speedFactor="1.0919" arrival="54323.00">
        <route edges="D2 L2 L12 L10 L7 D7"/>
    </vehicle>

    <vehicle id="1007" type="CarA" depart="54030.00" departLane="0" departSpeed="13.5427" fromTaz="taz92" toTaz="taz93" speedFactor="0.9750" arrival="54331.00">
        <route edges="D4 L4 L14 L18 L5 D5"/>
    </vehicle>

    <vehicle id="502" type="CarA" depart="54018.00" departLane="0" departSpeed="12.8733" fromTaz="taz91" toTaz="taz94" speedFactor="0.9268" arrival="54336.00">
        <route edges="D2 L2 L12 L10 L7 D7"/>
    </vehicle>

    <vehicle id="1010" type="CarA" depart="54042.00" departLane="1" departSpeed="13.9622" fromTaz="taz92" toTaz="taz93" speedFactor="1.0052" arrival="54337.00">
        <route edges="D4 L4 L14 L18 L5 D5"/>
    </vehicle>

    <vehicle id="1014" type="CarA" depart="54058.00" departLane="1" departSpeed="14.4928" fromTaz="taz92" toTaz="taz93" speedFactor="1.0434" arrival="54341.00">
        <route edges="D4 L4 L14 L18 L5 D5"/>
    </vehicle>

    <vehicle id="1013" type="CarA" depart="54054.00" departLane="1" departSpeed="14.3123" fromTaz="taz92" toTaz="taz93" speedFactor="1.0304" arrival="54345.00">
        <route edges="D4 L4 L14 L18 L5 D5"/>
    </vehicle>

    <vehicle id="1011" type="CarA" depart="54046.00" departLane="0" departSpeed="13.8178" fromTaz="taz92" toTaz="taz93" speedFactor="0.9948" arrival="54346.00">
        <route edges="D4 L4 L14 L18 L5 D5"/>
    </vehicle>

    <vehicle id="506" type="CarA" depart="54047.00" departLane="1" departSpeed="13.5177" fromTaz="taz91" toTaz="taz94" speedFactor="0.9732" arrival="54350.00">
        <route edges="D2 L2 L12 L10 L7 D7"/>
    </vehicle>

    <vehicle id="501" type="CarA" depart="54011.00" departLane="0" departSpeed="11.9023" fromTaz="taz91" toTaz="taz94" speedFactor="0.8569" arrival="54354.00">
        <route edges="D2 L2 L12 L10 L7 D7"/>
    </vehicle>

    <vehicle id="1008" type="CarA" depart="54034.00" departLane="0" departSpeed="12.7399" fromTaz="taz92" toTaz="taz93" speedFactor="0.9172" arrival="54356.00">
        <route edges="D4 L4 L14 L18 L5 D5"/>
    </vehicle>

    <vehicle id="1005" type="CarA" depart="54022.00" departLane="1" departSpeed="12.201" fromTaz="taz92" toTaz="taz93" speedFactor="0.8784" arrival="54357.00">
        <route edges="D4 L4 L14 L18 L5 D5"/>
    </vehicle>

    <vehicle id="508" type="CarA" depart="54062.00" departLane="0" departSpeed="13.8539" fromTaz="taz91" toTaz="taz94" speedFactor="0.9974" arrival="54357.00">
        <route edges="D2 L2 L12 L10 L7 D7"/>
    </vehicle>

    <vehicle id="509" type="CarA" depart="54069.00" departLane="0" departSpeed="14.1234" fromTaz="taz91" toTaz="taz94" speedFactor="1.0168" arrival="54358.00">
        <route edges="D2 L2 L12 L10 L7 D7"/>
    </vehicle>

    <vehicle id="1019" type="CarA" depart="54078.00" departLane="0" departSpeed="15.0359" fromTaz="taz92" toTaz="taz93" speedFactor="1.0825" arrival="54358.00">
        <route edges="D4 L4 L14 L18 L5 D5"/>
    </vehicle>

    <vehicle id="1904" type="CarA" depart="54018.00" departLane="1" departSpeed="15.5971" fromTaz="taz92" toTaz="taz94" speedFactor="1.1229" arrival="54362.00">
        <route edges="D4 L4 L14 L16 L10 L7 D7"/>
    </vehicle>

    <vehicle id="504" type="CarA" depart="54033.00" departLane="1" departSpeed="12.1204" fromTaz="taz91" toTaz="taz94" speedFactor="0.8726" arrival="54371.00">
        <route edges="D2 L2 L12 L10 L7 D7"/>
    </vehicle>

    <vehicle id="1017" type="CarA" depart="54070.00" departLane="1" departSpeed="13.9344" fromTaz="taz92" toTaz="taz93" speedFactor="1.0032" arrival="54371.00">
        <route edges="D4 L4 L14 L18 L5 D5"/>
    </vehicle>

    <vehicle id="1020" type="CarA" depart="54082.00" departLane="1" departSpeed="14.1095" fromTaz="taz92" toTaz="taz93" speedFactor="1.0158" arrival="54376.00">
        <route edges="D4 L4 L14 L18 L5 D5"/>
    </vehicle>

    <vehicle id="510" type="CarA" depart="54076.00" departLane="0" departSpeed="13.4664" fromTaz="taz91" toTaz="taz94" speedFactor="0.9695" arrival="54379.00">
        <route edges="D2 L2 L12 L10 L7 D7"/>
    </vehicle>

    <vehicle id="1022" type="CarA" depart="54090.00" departLane="0" departSpeed="14.4456" fromTaz="taz92" toTaz="taz93" speedFactor="1.0400" arrival="54385.00">
        <route edges="D4 L4 L14 L18 L5 D5"/>
    </vehicle>

    <vehicle id="1027" type="CarA" depart="54110.00" departLane="0" departSpeed="15.9429" fromTaz="taz92" toTaz="taz93" speedFactor="1.1478" arrival="54385.00">
        <route edges="D4 L4 L14 L18 L5 D5"/>
    </vehicle>

    <vehicle id="1024" type="CarA" depart="54098.00" departLane="1" departSpeed="14.3414" fromTaz="taz92" toTaz="taz93" speedFactor="1.0325" arrival="54391.00">
        <route edges="D4 L4 L14 L18 L5 D5"/>
    </vehicle>

    <vehicle id="512" type="CarA" depart="54090.00" departLane="0" departSpeed="13.5136" fromTaz="taz91" toTaz="taz94" speedFactor="0.9729" arrival="54392.00">
        <route edges="D2 L2 L12 L10 L7 D7"/>
    </vehicle>

    <vehicle id="515" type="CarA" depart="54112.00" departLane="1" departSpeed="14.4845" fromTaz="taz91" toTaz="taz94" speedFactor="1.0428" arrival="54393.00">
        <route edges="D2 L2 L12 L10 L7 D7"/>
    </vehicle>

    <vehicle id="517" type="CarA" depart="54126.00" departLane="1" departSpeed="15.2401" fromTaz="taz91" toTaz="taz94" speedFactor="1.0972" arrival="54393.00">
        <route edges="D2 L2 L12 L10 L7 D7"/>
    </vehicle>

    <vehicle id="513" type="CarA" depart="54098.00" departLane="0" departSpeed="13.6803" fromTaz="taz91" toTaz="taz94" speedFactor="0.9849" arrival="54396.00">
        <route edges="D2 L2 L12 L10 L7 D7"/>
    </vehicle>

    <vehicle id="1015" type="CarA" depart="54062.00" departLane="0" departSpeed="12.1801" fromTaz="taz92" toTaz="taz93" speedFactor="0.8769" arrival="54397.00">
        <route edges="D4 L4 L14 L18 L5 D5"/>
    </vehicle>

    <vehicle id="514" type="CarA" depart="54105.00" departLane="1" departSpeed="13.8636" fromTaz="taz91" toTaz="taz94" speedFactor="0.9981" arrival="54399.00">
        <route edges="D2 L2 L12 L10 L7 D7"/>
    </vehicle>

    <vehicle id="1030" type="CarA" depart="54122.00" departLane="1" departSpeed="15.154" fromTaz="taz92" toTaz="taz93" speedFactor="1.0910" arrival="54399.00">
        <route edges="D4 L4 L14 L18 L5 D5"/>
    </vehicle>

    <vehicle id="1026" type="CarA" depart="54106.00" departLane="0" departSpeed="14.1247" fromTaz="taz92" toTaz="taz93" speedFactor="1.0169" arrival="54400.00">
        <route edges="D4 L4 L14 L18 L5 D5"/>
    </vehicle>

    <vehicle id="1910" type="CarA" depart="54042.00" departLane="0" departSpeed="16.2763" fromTaz="taz92" toTaz="taz94" speedFactor="1.1718" arrival="54401.00">
        <route edges="D4 L4 L14 L16 L10 L7 D7"/>
    </vehicle>

    <vehicle id="1025" type="CarA" depart="54102.00" departLane="1" departSpeed="13.9914" fromTaz="taz92" toTaz="taz93" speedFactor="1.0073" arrival="54403.00">
        <route edges="D4 L4 L14 L18 L5 D5"/>
    </vehicle>

    <vehicle id="1018" type="CarA" depart="54074.00" departLane="1" departSpeed="12.4857" fromTaz="taz92" toTaz="taz93" speedFactor="0.8989" arrival="54406.00">
        <route edges="D4 L4 L14 L18 L5 D5"/>
    </vehicle>

    <vehicle id="1032" type="CarA" depart="54130.00" departLane="0" departSpeed="14.7928" fromTaz="taz92" toTaz="taz93" speedFactor="1.0650" arrival="54407.00">
        <route edges="D4 L4 L14 L18 L5 D5"/>
    </vehicle>

    <vehicle id="1023" type="CarA" depart="54094.00" departLane="0" departSpeed="13.058" fromTaz="taz92" toTaz="taz93" speedFactor="0.9401" arrival="54409.00">
        <route edges="D4 L4 L14 L18 L5 D5"/>
    </vehicle>

    <vehicle id="1016" type="CarA" depart="54066.00" departLane="0" departSpeed="11.8746" fromTaz="taz92" toTaz="taz93" speedFactor="0.8549" arrival="54410.00">
        <route edges="D4 L4 L14 L18 L5 D5"/>
    </vehicle>

    <vehicle id="1029" type="CarA" depart="54118.00" departLane="1" departSpeed="14.122" fromTaz="taz92" toTaz="taz93" speedFactor="1.0167" arrival="54410.00">
        <route edges="D4 L4 L14 L18 L5 D5"/>
    </vehicle>

    <vehicle id="1028" type="CarA" depart="54114.00" departLane="0" departSpeed="13.9886" fromTaz="taz92" toTaz="taz93" speedFactor="1.0071" arrival="54411.00">
        <route edges="D4 L4 L14 L18 L5 D5"/>
    </vehicle>

    <vehicle id="1021" type="CarA" depart="54086.00" departLane="1" departSpeed="12.5955" fromTaz="taz92" toTaz="taz93" speedFactor="0.9068" arrival="54412.00">
        <route edges="D4 L4 L14 L18 L5 D5"/>
    </vehicle>

    <vehicle id="1903" type="CarA" depart="54014.00" departLane="1" departSpeed="14.2553" fromTaz="taz92" toTaz="taz94" speedFactor="1.0263" arrival="54413.00">
        <route edges="D4 L4 L14 L16 L10 L7 D7"/>
    </vehicle>

    <vehicle id="5" type="CarA" depart="54040.00" departLane="1" departSpeed="16.3708" fromTaz="taz91" toTaz="taz93" speedFactor="1.1786" arrival="54413.00">
        <route edges="D2 L2 L12 L15 L18 L5 D5"/>
    </vehicle>

    <vehicle id="1914" type="CarA" depart="54058.00" departLane="0" departSpeed="15.1123" fromTaz="taz92" toTaz="taz94" speedFactor="1.0880" arrival="54413.00">
        <route edges="D4 L4 L14 L16 L10 L7 D7"/>
    </vehicle>

    <vehicle id="1037" type="CarA" depart="54150.00" departLane="0" departSpeed="16.3499" fromTaz="taz92" toTaz="taz93" speedFactor="1.1771" arrival="54413.00">
        <route edges="D4 L4 L14 L18 L5 D5"/>
    </vehicle>

    <vehicle id="1918" type="CarA" depart="54074.00" departLane="0" departSpeed="15.8693" fromTaz="taz92" toTaz="taz94" speedFactor="1.1425" arrival="54416.00">
        <route edges="D4 L4 L14 L16 L10 L7 D7"/>
    </vehicle>

    <vehicle id="511" type="CarA" depart="54083.00" departLane="0" departSpeed="12.2551" fromTaz="taz91" toTaz="taz94" speedFactor="0.8823" arrival="54416.00">
        <route edges="D2 L2 L12 L10 L7 D7"/>
    </vehicle>

    <vehicle id="1031" type="CarA" depart="54126.00" departLane="1" departSpeed="14.0275" fromTaz="taz92" toTaz="taz93" speedFactor="1.0099" arrival="54417.00">
        <route edges="D4 L4 L14 L18 L5 D5"/>
    </vehicle>

    <vehicle id="1036" type="CarA" depart="54146.00" departLane="0" departSpeed="15.2582" fromTaz="taz92" toTaz="taz93" speedFactor="1.0985" arrival="54420.00">
        <route edges="D4 L4 L14 L18 L5 D5"/>
    </vehicle>

    <vehicle id="521" type="CarA" depart="54155.00" departLane="0" departSpeed="15.3234" fromTaz="taz91" toTaz="taz94" speedFactor="1.1032" arrival="54423.00">
        <route edges="D2 L2 L12 L10 L7 D7"/>
    </vehicle>

    <vehicle id="1900" type="CarA" depart="54002.00" departLane="1" departSpeed="13.033" fromTaz="taz92" toTaz="taz94" speedFactor="0.9383" arrival="54425.00">
        <route edges="D4 L4 L14 L16 L10 L7 D7"/>
    </vehicle>

    <vehicle id="0" type="CarA" depart="54004.00" departLane="0" departSpeed="14.0345" fromTaz="taz91" toTaz="taz93" speedFactor="1.0104" arrival="54427.00">
        <route edges="D2 L2 L12 L15 L18 L5 D5"/>
    </vehicle>

    <vehicle id="1905" type="CarA" depart="54022.00" departLane="0" departSpeed="13.076" fromTaz="taz92" toTaz="taz94" speedFactor="0.9414" arrival="54427.00">
        <route edges="D4 L4 L14 L16 L10 L7 D7"/>
    </vehicle>

    <vehicle id="1906" type="CarA" depart="54026.00" departLane="1" departSpeed="14.0317" fromTaz="taz92" toTaz="taz94" speedFactor="1.0102" arrival="54427.00">
        <route edges="D4 L4 L14 L16 L10 L7 D7"/>
    </vehicle>

    <vehicle id="1034" type="CarA" depart="54138.00" departLane="1" departSpeed="14.0845" fromTaz="taz92" toTaz="taz93" speedFactor="1.0140" arrival="54427.00">
        <route edges="D4 L4 L14 L18 L5 D5"/>
    </vehicle>

    <vehicle id="1911" type="CarA" depart="54046.00" departLane="1" departSpeed="14.1636" fromTaz="taz92" toTaz="taz94" speedFactor="1.0197" arrival="54428.00">
        <route edges="D4 L4 L14 L16 L10 L7 D7"/>
    </vehicle>

    <vehicle id="1043" type="CarA" depart="54174.00" departLane="0" departSpeed="17.0291" fromTaz="taz92" toTaz="taz93" speedFactor="1.2260" arrival="54430.00">
        <route edges="D4 L4 L14 L18 L5 D5"/>
    </vehicle>

    <vehicle id="1916" type="CarA" depart="54066.00" departLane="1" departSpeed="16.236" fromTaz="taz92" toTaz="taz94" speedFactor="1.1689" arrival="54432.00">
        <route edges="D4 L4 L14 L16 L10 L7 D7"/>
    </vehicle>

    <vehicle id="1041" type="CarA" depart="54166.00" departLane="1" departSpeed="15.5346" fromTaz="taz92" toTaz="taz93" speedFactor="1.1184" arrival="54434.00">
        <route edges="D4 L4 L14 L18 L5 D5"/>
    </vehicle>

    <vehicle id="1902" type="CarA" depart="54010.00" departLane="1" departSpeed="12.3065" fromTaz="taz92" toTaz="taz94" speedFactor="0.8860" arrival="54438.00">
        <route edges="D4 L4 L14 L16 L10 L7 D7"/>
    </vehicle>

    <vehicle id="516" type="CarA" depart="54119.00" departLane="0" departSpeed="12.7982" fromTaz="taz91" toTaz="taz94" speedFactor="0.9214" arrival="54438.00">
        <route edges="D2 L2 L12 L10 L7 D7"/>
    </vehicle>

    <vehicle id="1909" type="CarA" depart="54038.00" departLane="0" departSpeed="12.9358" fromTaz="taz92" toTaz="taz94" speedFactor="0.9313" arrival="54442.00">
        <route edges="D4 L4 L14 L16 L10 L7 D7"/>
    </vehicle>

    <vehicle id="518" type="CarA" depart="54134.00" departLane="0" departSpeed="13.2302" fromTaz="taz91" toTaz="taz94" speedFactor="0.9525" arrival="54442.00">
        <route edges="D2 L2 L12 L10 L7 D7"/>
    </vehicle>

    <vehicle id="1040" type="CarA" depart="54162.00" departLane="0" departSpeed="14.7359" fromTaz="taz92" toTaz="taz93" speedFactor="1.0609" arrival="54443.00">
        <route edges="D4 L4 L14 L18 L5 D5"/>
    </vehicle>

    <vehicle id="523" type="CarA" depart="54170.00" departLane="1" departSpeed="14.8387" fromTaz="taz91" toTaz="taz94" speedFactor="1.0683" arrival="54446.00">
        <route edges="D2 L2 L12 L10 L7 D7"/>
    </vehicle>

    <vehicle id="525" type="CarA" depart="54184.00" departLane="0" departSpeed="15.6818" fromTaz="taz91" toTaz="taz94" speedFactor="1.1290" arrival="54446.00">
        <route edges="D2 L2 L12 L10 L7 D7"/>
    </vehicle>

    <vehicle id="519" type="CarA" depart="54141.00" departLane="0" departSpeed="13.3288" fromTaz="taz91" toTaz="taz94" speedFactor="0.9596" arrival="54447.00">
        <route edges="D2 L2 L12 L10 L7 D7"/>
    </vehicle>

    <vehicle id="1039" type="CarA" depart="54158.00" departLane="1" departSpeed="14.3261" fromTaz="taz92" toTaz="taz93" speedFactor="1.0314" arrival="54449.00">
        <route edges="D4 L4 L14 L18 L5 D5"/>
    </vehicle>

    <vehicle id="1045" type="CarA" depart="54182.00" departLane="0" departSpeed="15.4707" fromTaz="taz92" toTaz="taz93" speedFactor="1.1138" arrival="54451.00">
        <route edges="D4 L4 L14 L18 L5 D5"/>
    </vehicle>

    <vehicle id="1901" type="CarA" depart="54006.00" departLane="1" departSpeed="11.5426" fromTaz="taz92" toTaz="taz94" speedFactor="0.8310" arrival="54453.00">
        <route edges="D4 L4 L14 L16 L10 L7 D7"/>
    </vehicle>

    <vehicle id="1908" type="CarA" depart="54034.00" departLane="1" departSpeed="13.1788" fromTaz="taz92" toTaz="taz94" speedFactor="0.9488" arrival="54457.00">
        <route edges="D4 L4 L14 L16 L10 L7 D7"/>
    </vehicle>

    <vehicle id="1913" type="CarA" depart="54054.00" departLane="0" departSpeed="13.2941" fromTaz="taz92" toTaz="taz94" speedFactor="0.9571" arrival="54459.00">
        <route edges="D4 L4 L14 L16 L10 L7 D7"/>
    </vehicle>

    <vehicle id="1038" type="CarA" depart="54154.00" departLane="0" departSpeed="13.7705" fromTaz="taz92" toTaz="taz93" speedFactor="0.9914" arrival="54460.00">
        <route edges="D4 L4 L14 L18 L5 D5"/>
    </vehicle>

    <vehicle id="527" type="CarA" depart="54198.00" departLane="0" departSpeed="15.6068" fromTaz="taz91" toTaz="taz94" speedFactor="1.1236" arrival="54460.00">
        <route edges="D2 L2 L12 L10 L7 D7"/>
    </vehicle>

    <vehicle id="1035" type="CarA" depart="54142.00" departLane="0" departSpeed="12.8858" fromTaz="taz92" toTaz="taz93" speedFactor="0.9277" arrival="54461.00">
        <route edges="D4 L4 L14 L18 L5 D5"/>
    </vehicle>

    <vehicle id="6" type="CarA" depart="54047.00" departLane="0" departSpeed="16.386" fromTaz="taz91" toTaz="taz93" speedFactor="1.1797" arrival="54462.00">
        <route edges="D2 L2 L12 L15 L18 L5 D5"/>
    </vehicle>

    <vehicle id="1033" type="CarA" depart="54134.00" departLane="0" departSpeed="12.4163" fromTaz="taz92" toTaz="taz93" speedFactor="0.8939" arrival="54463.00">
        <route edges="D4 L4 L14 L18 L5 D5"/>
    </vehicle>

    <vehicle id="528" type="CarA" depart="54206.00" departLane="1" departSpeed="15.8638" fromTaz="taz91" toTaz="taz94" speedFactor="1.1421" arrival="54463.00">
        <route edges="D2 L2 L12 L10 L7 D7"/>
    </vehicle>

    <vehicle id="520" type="CarA" depart="54148.00" departLane="0" departSpeed="12.8066" fromTaz="taz91" toTaz="taz94" speedFactor="0.9220" arrival="54468.00">
        <route edges="D2 L2 L12 L10 L7 D7"/>
    </vehicle>

    <vehicle id="524" type="CarA" depart="54177.00" departLane="0" departSpeed="14.1011" fromTaz="taz91" toTaz="taz94" speedFactor="1.0152" arrival="54468.00">
        <route edges="D2 L2 L12 L10 L7 D7"/>
    </vehicle>

    <vehicle id="1050" type="CarA" depart="54202.00" departLane="0" departSpeed="16.3763" fromTaz="taz92" toTaz="taz93" speedFactor="1.1790" arrival="54469.00">
        <route edges="D4 L4 L14 L18 L5 D5"/>
    </vehicle>

    <vehicle id="1907" type="CarA" depart="54030.00" departLane="1" departSpeed="12.3565" fromTaz="taz92" toTaz="taz94" speedFactor="0.8896" arrival="54470.00">
        <route edges="D4 L4 L14 L16 L10 L7 D7"/>
    </vehicle>

    <vehicle id="1044" type="CarA" depart="54178.00" departLane="0" departSpeed="13.9442" fromTaz="taz92" toTaz="taz93" speedFactor="1.0039" arrival="54471.00">
        <route edges="D4 L4 L14 L18 L5 D5"/>
    </vehicle>

    <vehicle id="526" type="CarA" depart="54191.00" departLane="1" departSpeed="14.4442" fromTaz="taz91" toTaz="taz94" speedFactor="1.0399" arrival="54473.00">
        <route edges="D2 L2 L12 L10 L7 D7"/>
    </vehicle>

    <vehicle id="1919" type="CarA" depart="54078.00" departLane="1" departSpeed="15.5471" fromTaz="taz92" toTaz="taz94" speedFactor="1.1193" arrival="54475.00">
        <route edges="D4 L4 L14 L16 L10 L7 D7"/>
    </vehicle>

    <vehicle id="1042" type="CarA" depart="54170.00" departLane="1" departSpeed="13.3302" fromTaz="taz92" toTaz="taz93" speedFactor="0.9597" arrival="54476.00">
        <route edges="D4 L4 L14 L18 L5 D5"/>
    </vehicle>

    <vehicle id="1049" type="CarA" depart="54198.00" departLane="0" departSpeed="14.8817" fromTaz="taz92" toTaz="taz93" speedFactor="1.0714" arrival="54477.00">
        <route edges="D4 L4 L14 L18 L5 D5"/>
    </vehicle>

    <vehicle id="2" type="CarA" depart="54018.00" departLane="1" departSpeed="13.7678" fromTaz="taz91" toTaz="taz93" speedFactor="0.9912" arrival="54482.00">
        <route edges="D2 L2 L12 L15 L18 L5 D5"/>
    </vehicle>

    <vehicle id="1931" type="CarA" depart="54126.00" departLane="0" departSpeed="15.579" fromTaz="taz92" toTaz="taz94" speedFactor="1.1216" arrival="54490.00">
        <route edges="D4 L4 L14 L16 L10 L7 D7"/>
    </vehicle>

    <vehicle id="1923" type="CarA" depart="54094.00" departLane="1" departSpeed="14.6637" fromTaz="taz92" toTaz="taz94" speedFactor="1.0557" arrival="54497.00">
        <route edges="D4 L4 L14 L16 L10 L7 D7"/>
    </vehicle>

    <vehicle id="1048" type="CarA" depart="54194.00" departLane="1" departSpeed="13.3761" fromTaz="taz92" toTaz="taz93" speedFactor="0.9630" arrival="54499.00">
        <route edges="D4 L4 L14 L18 L5 D5"/>
    </vehicle>

    <vehicle id="1925" type="CarA" depart="54102.00" departLane="0" departSpeed="15.097" fromTaz="taz92" toTaz="taz94" speedFactor="1.0869" arrival="54500.00">
        <route edges="D4 L4 L14 L16 L10 L7 D7"/>
    </vehicle>

    <vehicle id="1930" type="CarA" depart="54122.00" departLane="0" departSpeed="14.679" fromTaz="taz92" toTaz="taz94" speedFactor="1.0568" arrival="54500.00">
        <route edges="D4 L4 L14 L16 L10 L7 D7"/>
    </vehicle>

    <vehicle id="1917" type="CarA" depart="54070.00" departLane="0" departSpeed="13.8344" fromTaz="taz92" toTaz="taz94" speedFactor="0.9960" arrival="54503.00">
        <route edges="D4 L4 L14 L16 L10 L7 D7"/>
    </vehicle>

    <vehicle id="1933" type="CarA" depart="54134.00" departLane="1" departSpeed="14.8998" fromTaz="taz92" toTaz="taz94" speedFactor="1.0727" arrival="54504.00">
        <route edges="D4 L4 L14 L16 L10 L7 D7"/>
    </vehicle>

    <vehicle id="1912" type="CarA" depart="54050.00" departLane="0" departSpeed="12.5093" fromTaz="taz92" toTaz="taz94" speedFactor="0.9006" arrival="54505.00">
        <route edges="D4 L4 L14 L16 L10 L7 D7"/>
    </vehicle>

    <vehicle id="1052" type="CarA" depart="54210.00" departLane="1" departSpeed="13.79" fromTaz="taz92" toTaz="taz93" speedFactor="0.9928" arrival="54506.00">
        <route edges="D4 L4 L14 L18 L5 D5"/>
    </vehicle>

    <vehicle id="532" type="CarA" depart="54234.00" departLane="0" departSpeed="15.029" fromTaz="taz91" toTaz="taz94" speedFactor="1.0820" arrival="54506.00">
        <route edges="D2 L2 L12 L10 L7 D7"/>
    </vehicle>

    <vehicle id="1053" type="CarA" depart="54214.00" departLane="0" departSpeed="13.9511" fromTaz="taz92" toTaz="taz93" speedFactor="1.0044" arrival="54507.00">
        <route edges="D4 L4 L14 L18 L5 D5"/>
    </vehicle>

    <vehicle id="531" type="CarA" depart="54227.00" departLane="0" departSpeed="14.3192" fromTaz="taz91" toTaz="taz94" speedFactor="1.0309" arrival="54511.00">
        <route edges="D2 L2 L12 L10 L7 D7"/>
    </vehicle>

    <vehicle id="1934" type="CarA" depart="54138.00" departLane="0" departSpeed="14.3692" fromTaz="taz92" toTaz="taz94" speedFactor="1.0345" arrival="54513.00">
        <route edges="D4 L4 L14 L16 L10 L7 D7"/>
    </vehicle>

    <vehicle id="1926" type="CarA" depart="54106.00" departLane="1" departSpeed="13.4316" fromTaz="taz92" toTaz="taz94" speedFactor="0.9670" arrival="54517.00">
        <route edges="D4 L4 L14 L16 L10 L7 D7"/>
    </vehicle>

    <vehicle id="1054" type="CarA" depart="54218.00" departLane="1" departSpeed="13.665" fromTaz="taz92" toTaz="taz93" speedFactor="0.9838" arrival="54517.00">
        <route edges="D4 L4 L14 L18 L5 D5"/>
    </vehicle>

    <vehicle id="522" type="CarA" depart="54162.00" departLane="1" departSpeed="11.419" fromTaz="taz91" toTaz="taz94" speedFactor="0.8221" arrival="54522.00">
        <route edges="D2 L2 L12 L10 L7 D7"/>
    </vehicle>

    <vehicle id="1047" type="CarA" depart="54190.00" departLane="0" departSpeed="12.3177" fromTaz="taz92" toTaz="taz93" speedFactor="0.8868" arrival="54522.00">
        <route edges="D4 L4 L14 L18 L5 D5"/>
    </vehicle>

    <vehicle id="1940" type="CarA" depart="54162.00" departLane="1" departSpeed="16.0124" fromTaz="taz92" toTaz="taz94" speedFactor="1.1528" arrival="54525.00">
        <route edges="D4 L4 L14 L16 L10 L7 D7"/>
    </vehicle>

    <vehicle id="1058" type="CarA" depart="54234.00" departLane="0" departSpeed="15.2762" fromTaz="taz92" toTaz="taz93" speedFactor="1.0998" arrival="54525.00">
        <route edges="D4 L4 L14 L18 L5 D5"/>
    </vehicle>

    <vehicle id="534" type="CarA" depart="54249.00" departLane="1" departSpeed="14.8317" fromTaz="taz91" toTaz="taz94" speedFactor="1.0678" arrival="54527.00">
        <route edges="D2 L2 L12 L10 L7 D7"/>
    </vehicle>

    <vehicle id="1057" type="CarA" depart="54230.00" departLane="0" departSpeed="15.0484" fromTaz="taz92" toTaz="taz93" speedFactor="1.0834" arrival="54531.00">
        <route edges="D4 L4 L14 L18 L5 D5"/>
    </vehicle>

    <vehicle id="1" type="CarA" depart="54011.00" departLane="1" departSpeed="13.0274" fromTaz="taz91" toTaz="taz93" speedFactor="0.9379" arrival="54533.00">
        <route edges="D2 L2 L12 L15 L18 L5 D5"/>
    </vehicle>

    <vehicle id="3" type="CarA" depart="54026.00" departLane="1" departSpeed="13.0038" fromTaz="taz91" toTaz="taz93" speedFactor="0.9362" arrival="54533.00">
        <route edges="D2 L2 L12 L15 L18 L5 D5"/>
    </vehicle>

    <vehicle id="1920" type="CarA" depart="54082.00" departLane="0" departSpeed="13.7094" fromTaz="taz92" toTaz="taz94" speedFactor="0.9870" arrival="54534.00">
        <route edges="D4 L4 L14 L16 L10 L7 D7"/>
    </vehicle>

    <vehicle id="529" type="CarA" depart="54213.00" departLane="0" departSpeed="12.701" fromTaz="taz91" toTaz="taz94" speedFactor="0.9144" arrival="54536.00">
        <route edges="D2 L2 L12 L10 L7 D7"/>
    </vehicle>

    <vehicle id="1051" type="CarA" depart="54206.00" departLane="0" departSpeed="12.2038" fromTaz="taz92" toTaz="taz93" speedFactor="0.8786" arrival="54544.00">
        <route edges="D4 L4 L14 L18 L5 D5"/>
    </vehicle>

    <vehicle id="1060" type="CarA" depart="54242.00" departLane="0" departSpeed="13.4941" fromTaz="taz92" toTaz="taz93" speedFactor="0.9715" arrival="54545.00">
        <route edges="D4 L4 L14 L18 L5 D5"/>
    </vehicle>

    <vehicle id="1938" type="CarA" depart="54154.00" departLane="1" departSpeed="14.8748" fromTaz="taz92" toTaz="taz94" speedFactor="1.0709" arrival="54546.00">
        <route edges="D4 L4 L14 L16 L10 L7 D7"/>
    </vehicle>

    <vehicle id="539" type="CarA" depart="54285.00" departLane="0" departSpeed="15.9443" fromTaz="taz91" toTaz="taz94" speedFactor="1.1479" arrival="54547.00">
        <route edges="D2 L2 L12 L10 L7 D7"/>
    </vehicle>

    <vehicle id="530" type="CarA" depart="54220.00" departLane="0" departSpeed="12.4496" fromTaz="taz91" toTaz="taz94" speedFactor="0.8963" arrival="54548.00">
        <route edges="D2 L2 L12 L10 L7 D7"/>
    </vehicle>

    <vehicle id="1063" type="CarA" depart="54254.00" departLane="0" departSpeed="14.3067" fromTaz="taz92" toTaz="taz93" speedFactor="1.0300" arrival="54548.00">
        <route edges="D4 L4 L14 L18 L5 D5"/>
    </vehicle>

    <vehicle id="1059" type="CarA" depart="54238.00" departLane="0" departSpeed="13.0816" fromTaz="taz92" toTaz="taz93" speedFactor="0.9418" arrival="54551.00">
        <route edges="D4 L4 L14 L18 L5 D5"/>
    </vehicle>
